    1C
    1UUSER                                                              
    1UDATE              15.july.2016                                    
    1UTIME              11:47:46                                        
    1UHOST                                                              
    1UPGM               CalculiX                                        
    1UDIR                                                               
    1UDBN                                                               
    1UMAT    1MECHANICALMATERIAL                                        
    2C                           273                                     1
 -1         1 1.00000E+01 1.00000E+01 0.00000E+00
 -1         2 1.00000E+01 1.00000E+01 1.00000E+01
 -1         3 1.00000E+01 0.00000E+00 0.00000E+00
 -1         4 1.00000E+01 0.00000E+00 1.00000E+01
 -1         5 0.00000E+00 1.00000E+01 0.00000E+00
 -1         6 0.00000E+00 1.00000E+01 1.00000E+01
 -1         7 0.00000E+00 0.00000E+00 0.00000E+00
 -1         8 0.00000E+00 0.00000E+00 1.00000E+01
 -1         9 0.00000E+00 3.27000E+00 1.00000E+01
 -1        10 0.00000E+00 6.55000E+00 1.00000E+01
 -1        11 3.27000E+00 1.00000E+01 1.00000E+01
 -1        12 6.75000E+00 1.00000E+01 1.00000E+01
 -1        13 1.00000E+01 3.52000E+00 1.00000E+01
 -1        14 1.00000E+01 6.64000E+00 1.00000E+01
 -1        15 3.30000E+00 0.00000E+00 1.00000E+01
 -1        16 6.81000E+00 0.00000E+00 1.00000E+01
 -1        17 0.00000E+00 3.31000E+00 0.00000E+00
 -1        18 0.00000E+00 6.46000E+00 0.00000E+00
 -1        19 3.27000E+00 1.00000E+01 0.00000E+00
 -1        20 6.75000E+00 1.00000E+01 0.00000E+00
 -1        21 1.00000E+01 3.40000E+00 0.00000E+00
 -1        22 1.00000E+01 6.57000E+00 0.00000E+00
 -1        23 3.27000E+00 0.00000E+00 0.00000E+00
 -1        24 6.75000E+00 0.00000E+00 0.00000E+00
 -1        25 1.00000E+01 1.00000E+01 3.46000E+00
 -1        26 1.00000E+01 1.00000E+01 6.78000E+00
 -1        27 0.00000E+00 1.00000E+01 3.25000E+00
 -1        28 0.00000E+00 1.00000E+01 6.75000E+00
 -1        29 1.00000E+01 0.00000E+00 3.31000E+00
 -1        30 1.00000E+01 0.00000E+00 6.91000E+00
 -1        31 0.00000E+00 0.00000E+00 3.20000E+00
 -1        32 0.00000E+00 0.00000E+00 6.70000E+00
 -1        33 2.67001E+00 3.50270E+00 1.00000E+01
 -1        34 4.73661E+00 6.70869E+00 1.00000E+01
 -1        35 6.30929E+00 3.61183E+00 1.00000E+01
 -1        36 2.64481E+00 3.47206E+00 0.00000E+00
 -1        37 4.74991E+00 6.67979E+00 0.00000E+00
 -1        38 6.26878E+00 3.44519E+00 0.00000E+00
 -1        39 5.15902E+00 1.00000E+01 3.03611E+00
 -1        40 7.08166E+00 1.00000E+01 5.86540E+00
 -1        41 3.71315E+00 1.00000E+01 6.37295E+00
 -1        42 3.38806E+00 0.00000E+00 2.59218E+00
 -1        43 6.87299E+00 0.00000E+00 4.78479E+00
 -1        44 3.45473E+00 0.00000E+00 6.30213E+00
 -1        45 1.00000E+01 3.63795E+00 3.67039E+00
 -1        46 1.00000E+01 4.12680E+00 7.10096E+00
 -1        47 1.00000E+01 6.89769E+00 5.12838E+00
 -1        48 0.00000E+00 3.55716E+00 3.65292E+00
 -1        49 0.00000E+00 3.49668E+00 7.32388E+00
 -1        50 0.00000E+00 6.74274E+00 5.16767E+00
 -1        51 7.17864E+00 6.90565E+00 3.53884E+00
 -1        52 7.15583E+00 4.66632E+00 6.92229E+00
 -1        53 5.58026E+00 3.50663E+00 3.69601E+00
 -1        54 3.25234E+00 4.96795E+00 5.57304E+00
 -1        55 0.00000E+00 1.63500E+00 1.00000E+01
 -1        56 0.00000E+00 4.91000E+00 1.00000E+01
 -1        57 0.00000E+00 8.27500E+00 1.00000E+01
 -1        58 1.63500E+00 1.00000E+01 1.00000E+01
 -1        59 5.01000E+00 1.00000E+01 1.00000E+01
 -1        60 8.37500E+00 1.00000E+01 1.00000E+01
 -1        61 1.00000E+01 1.76000E+00 1.00000E+01
 -1        62 1.00000E+01 5.08000E+00 1.00000E+01
 -1        63 1.00000E+01 8.32000E+00 1.00000E+01
 -1        64 1.65000E+00 0.00000E+00 1.00000E+01
 -1        65 5.05500E+00 0.00000E+00 1.00000E+01
 -1        66 8.40500E+00 0.00000E+00 1.00000E+01
 -1        67 0.00000E+00 1.65500E+00 0.00000E+00
 -1        68 0.00000E+00 4.88500E+00 0.00000E+00
 -1        69 0.00000E+00 8.23000E+00 0.00000E+00
 -1        70 1.63500E+00 1.00000E+01 0.00000E+00
 -1        71 5.01000E+00 1.00000E+01 0.00000E+00
 -1        72 8.37500E+00 1.00000E+01 0.00000E+00
 -1        73 1.00000E+01 1.70000E+00 0.00000E+00
 -1        74 1.00000E+01 4.98500E+00 0.00000E+00
 -1        75 1.00000E+01 8.28500E+00 0.00000E+00
 -1        76 1.63500E+00 0.00000E+00 0.00000E+00
 -1        77 5.01000E+00 0.00000E+00 0.00000E+00
 -1        78 8.37500E+00 0.00000E+00 0.00000E+00
 -1        79 1.00000E+01 1.00000E+01 1.73000E+00
 -1        80 1.00000E+01 1.00000E+01 5.12000E+00
 -1        81 1.00000E+01 1.00000E+01 8.39000E+00
 -1        82 0.00000E+00 1.00000E+01 1.62500E+00
 -1        83 0.00000E+00 1.00000E+01 5.00000E+00
 -1        84 0.00000E+00 1.00000E+01 8.37500E+00
 -1        85 1.00000E+01 0.00000E+00 1.65500E+00
 -1        86 1.00000E+01 0.00000E+00 5.11000E+00
 -1        87 1.00000E+01 0.00000E+00 8.45500E+00
 -1        88 0.00000E+00 0.00000E+00 1.60000E+00
 -1        89 0.00000E+00 0.00000E+00 4.95000E+00
 -1        90 0.00000E+00 0.00000E+00 8.35000E+00
 -1        91 1.33500E+00 1.75135E+00 1.00000E+01
 -1        92 2.98500E+00 1.75135E+00 1.00000E+01
 -1        93 1.33500E+00 3.38635E+00 1.00000E+01
 -1        94 1.33500E+00 5.02635E+00 1.00000E+01
 -1        95 1.63500E+00 8.27500E+00 1.00000E+01
 -1        96 4.00331E+00 8.35435E+00 1.00000E+01
 -1        97 5.74331E+00 8.35435E+00 1.00000E+01
 -1        98 8.37500E+00 8.32000E+00 1.00000E+01
 -1        99 8.40500E+00 1.76000E+00 1.00000E+01
 -1       100 8.15464E+00 5.12591E+00 1.00000E+01
 -1       101 8.15464E+00 3.56591E+00 1.00000E+01
 -1       102 6.55964E+00 1.80591E+00 1.00000E+01
 -1       103 4.80464E+00 1.80591E+00 1.00000E+01
 -1       104 2.36831E+00 6.62935E+00 1.00000E+01
 -1       105 7.36831E+00 6.67435E+00 1.00000E+01
 -1       106 4.48965E+00 3.55726E+00 1.00000E+01
 -1       107 5.52295E+00 5.16026E+00 1.00000E+01
 -1       108 3.70331E+00 5.10570E+00 1.00000E+01
 -1       109 1.32240E+00 1.73603E+00 0.00000E+00
 -1       110 1.32240E+00 3.39103E+00 0.00000E+00
 -1       111 1.32240E+00 4.96603E+00 0.00000E+00
 -1       112 1.63500E+00 8.23000E+00 0.00000E+00
 -1       113 5.74996E+00 8.33990E+00 0.00000E+00
 -1       114 4.00996E+00 8.33990E+00 0.00000E+00
 -1       115 8.37500E+00 8.28500E+00 0.00000E+00
 -1       116 8.37500E+00 1.70000E+00 0.00000E+00
 -1       117 8.13439E+00 3.42259E+00 0.00000E+00
 -1       118 8.13439E+00 5.00759E+00 0.00000E+00
 -1       119 6.50939E+00 1.72259E+00 0.00000E+00
 -1       120 4.76939E+00 1.72259E+00 0.00000E+00
 -1       121 2.95740E+00 1.73603E+00 0.00000E+00
 -1       122 2.37496E+00 6.56990E+00 0.00000E+00
 -1       123 7.37496E+00 6.62490E+00 0.00000E+00
 -1       124 4.45679E+00 3.45862E+00 0.00000E+00
 -1       125 3.69736E+00 5.07592E+00 0.00000E+00
 -1       126 5.50935E+00 5.06249E+00 0.00000E+00
 -1       127 1.63500E+00 1.00000E+01 1.62500E+00
 -1       128 4.21451E+00 1.00000E+01 1.51806E+00
 -1       129 5.95451E+00 1.00000E+01 1.51806E+00
 -1       130 8.37500E+00 1.00000E+01 1.73000E+00
 -1       131 8.54083E+00 1.00000E+01 4.66270E+00
 -1       132 8.54083E+00 1.00000E+01 6.32270E+00
 -1       133 8.37500E+00 1.00000E+01 8.39000E+00
 -1       134 1.63500E+00 1.00000E+01 8.37500E+00
 -1       135 5.23158E+00 1.00000E+01 8.18647E+00
 -1       136 3.49158E+00 1.00000E+01 8.18647E+00
 -1       137 1.85658E+00 1.00000E+01 6.56147E+00
 -1       138 1.85658E+00 1.00000E+01 4.81147E+00
 -1       139 7.57951E+00 1.00000E+01 3.24806E+00
 -1       140 6.91583E+00 1.00000E+01 7.93270E+00
 -1       141 2.57951E+00 1.00000E+01 3.14306E+00
 -1       142 4.43609E+00 1.00000E+01 4.70453E+00
 -1       143 5.39741E+00 1.00000E+01 6.11917E+00
 -1       144 6.12034E+00 1.00000E+01 4.45076E+00
 -1       145 1.69403E+00 0.00000E+00 1.29609E+00
 -1       146 3.32903E+00 0.00000E+00 1.29609E+00
 -1       147 5.06903E+00 0.00000E+00 1.29609E+00
 -1       148 8.37500E+00 0.00000E+00 1.65500E+00
 -1       149 8.43650E+00 0.00000E+00 5.84740E+00
 -1       150 8.43650E+00 0.00000E+00 4.04740E+00
 -1       151 8.40500E+00 0.00000E+00 8.45500E+00
 -1       152 1.65000E+00 0.00000E+00 8.35000E+00
 -1       153 3.37737E+00 0.00000E+00 8.15106E+00
 -1       154 5.13237E+00 0.00000E+00 8.15106E+00
 -1       155 1.72737E+00 0.00000E+00 6.50106E+00
 -1       156 1.72737E+00 0.00000E+00 4.75106E+00
 -1       157 6.81150E+00 0.00000E+00 2.39240E+00
 -1       158 6.84150E+00 0.00000E+00 7.39240E+00
 -1       159 1.69403E+00 0.00000E+00 2.89609E+00
 -1       160 3.42140E+00 0.00000E+00 4.44716E+00
 -1       161 5.13053E+00 0.00000E+00 3.68849E+00
 -1       162 5.16386E+00 0.00000E+00 5.54346E+00
 -1       163 1.00000E+01 1.70000E+00 1.65500E+00
 -1       164 1.00000E+01 1.81897E+00 3.49020E+00
 -1       165 1.00000E+01 1.81897E+00 5.29020E+00
 -1       166 1.00000E+01 1.76000E+00 8.45500E+00
 -1       167 1.00000E+01 3.82340E+00 8.55048E+00
 -1       168 1.00000E+01 5.38340E+00 8.55048E+00
 -1       169 1.00000E+01 8.32000E+00 8.39000E+00
 -1       170 1.00000E+01 8.28500E+00 1.73000E+00
 -1       171 1.00000E+01 8.44885E+00 5.95419E+00
 -1       172 1.00000E+01 8.44885E+00 4.29419E+00
 -1       173 1.00000E+01 6.73385E+00 2.56419E+00
 -1       174 1.00000E+01 5.10397E+00 1.83520E+00
 -1       175 1.00000E+01 3.51897E+00 1.83520E+00
 -1       176 1.00000E+01 2.06340E+00 7.00548E+00
 -1       177 1.00000E+01 3.88237E+00 5.38568E+00
 -1       178 1.00000E+01 6.76885E+00 7.56419E+00
 -1       179 1.00000E+01 5.51225E+00 6.11467E+00
 -1       180 1.00000E+01 5.26782E+00 4.39939E+00
 -1       181 0.00000E+00 1.65500E+00 1.60000E+00
 -1       182 0.00000E+00 1.77858E+00 5.17646E+00
 -1       183 0.00000E+00 1.77858E+00 3.42646E+00
 -1       184 0.00000E+00 1.74834E+00 8.66194E+00
 -1       185 0.00000E+00 3.38334E+00 8.66194E+00
 -1       186 0.00000E+00 5.02334E+00 8.66194E+00
 -1       187 0.00000E+00 8.27500E+00 8.37500E+00
 -1       188 0.00000E+00 8.23000E+00 1.62500E+00
 -1       189 0.00000E+00 8.37137E+00 4.20883E+00
 -1       190 0.00000E+00 8.37137E+00 5.95883E+00
 -1       191 0.00000E+00 6.60137E+00 2.58383E+00
 -1       192 0.00000E+00 3.43358E+00 1.82646E+00
 -1       193 0.00000E+00 1.74834E+00 7.01194E+00
 -1       194 0.00000E+00 6.64637E+00 7.58383E+00
 -1       195 0.00000E+00 5.00858E+00 1.82646E+00
 -1       196 0.00000E+00 5.14995E+00 4.41029E+00
 -1       197 0.00000E+00 3.52692E+00 5.48840E+00
 -1       198 0.00000E+00 5.11971E+00 6.24577E+00
 -1       199 6.98291E+00 2.33316E+00 8.46115E+00
 -1       200 8.57791E+00 4.09316E+00 8.46115E+00
 -1       201 6.73256E+00 4.13907E+00 8.46115E+00
 -1       202 8.57791E+00 2.33316E+00 6.91615E+00
 -1       203 8.57791E+00 4.39656E+00 7.01163E+00
 -1       204 8.13439E+00 3.54157E+00 1.83520E+00
 -1       205 8.13439E+00 1.72259E+00 1.65500E+00
 -1       206 8.58932E+00 8.45283E+00 3.49942E+00
 -1       207 8.58932E+00 6.73783E+00 1.76942E+00
 -1       208 8.58932E+00 6.90167E+00 4.33361E+00
 -1       209 5.20408E+00 4.81713E+00 6.24767E+00
 -1       210 7.16723E+00 5.78599E+00 5.23056E+00
 -1       211 5.43449E+00 7.33316E+00 6.64762E+00
 -1       212 5.21549E+00 5.93680E+00 4.55594E+00
 -1       213 3.48275E+00 7.48397E+00 5.97299E+00
 -1       214 5.44590E+00 8.45283E+00 4.95589E+00
 -1       215 4.41630E+00 4.23729E+00 4.63453E+00
 -1       216 3.35354E+00 2.48397E+00 5.93758E+00
 -1       217 6.36804E+00 4.08648E+00 5.30915E+00
 -1       218 5.30528E+00 2.33316E+00 6.61221E+00
 -1       219 4.51750E+00 1.75332E+00 4.99907E+00
 -1       220 6.37945E+00 5.20614E+00 3.61742E+00
 -1       221 4.20568E+00 7.48397E+00 4.30458E+00
 -1       222 6.16883E+00 8.45283E+00 3.28748E+00
 -1       223 2.37496E+00 8.33990E+00 1.62500E+00
 -1       224 4.95447E+00 8.33990E+00 1.51806E+00
 -1       225 5.96428E+00 6.79272E+00 1.76942E+00
 -1       226 6.96432E+00 8.45283E+00 1.76942E+00
 -1       227 3.01643E+00 1.73603E+00 1.29609E+00
 -1       228 4.00113E+00 5.82387E+00 2.78652E+00
 -1       229 5.16509E+00 5.09321E+00 1.84801E+00
 -1       230 5.92452E+00 3.47591E+00 1.84801E+00
 -1       231 4.11254E+00 3.48934E+00 1.84801E+00
 -1       232 7.13015E+00 8.45283E+00 4.70212E+00
 -1       233 4.82842E+00 1.72259E+00 1.29609E+00
 -1       234 6.57088E+00 1.72259E+00 2.39240E+00
 -1       235 4.48416E+00 1.75332E+00 3.14410E+00
 -1       236 6.22663E+00 1.75332E+00 4.24040E+00
 -1       237 8.58932E+00 5.27180E+00 3.60462E+00
 -1       238 6.72371E+00 5.17542E+00 1.76942E+00
 -1       239 1.69403E+00 1.77858E+00 3.12255E+00
 -1       240 1.72737E+00 1.77858E+00 4.97753E+00
 -1       241 8.54083E+00 8.32000E+00 7.93270E+00
 -1       242 8.54083E+00 8.44885E+00 5.49689E+00
 -1       243 7.11874E+00 7.33316E+00 6.39384E+00
 -1       244 8.57791E+00 5.65316E+00 8.46115E+00
 -1       245 8.57791E+00 5.78201E+00 6.02534E+00
 -1       246 1.33500E+00 3.49969E+00 8.66194E+00
 -1       247 2.96117E+00 4.23532E+00 7.78652E+00
 -1       248 1.62617E+00 4.23231E+00 6.44846E+00
 -1       249 1.62617E+00 5.75897E+00 7.78652E+00
 -1       250 1.33500E+00 1.75135E+00 8.35000E+00
 -1       251 8.57791E+00 4.15213E+00 5.29634E+00
 -1       252 7.79013E+00 3.57229E+00 3.68320E+00
 -1       253 3.32020E+00 2.48397E+00 4.08261E+00
 -1       254 2.94857E+00 4.22000E+00 2.78652E+00
 -1       255 4.22488E+00 8.35435E+00 8.18647E+00
 -1       256 4.88201E+00 1.80591E+00 8.15106E+00
 -1       257 1.62617E+00 5.85534E+00 5.37035E+00
 -1       258 1.62617E+00 4.26256E+00 4.61298E+00
 -1       259 1.72737E+00 1.74834E+00 6.81301E+00
 -1       260 1.85658E+00 8.27500E+00 8.18647E+00
 -1       261 3.99448E+00 5.83832E+00 7.78652E+00
 -1       262 3.06237E+00 1.75135E+00 8.15106E+00
 -1       263 7.01441E+00 2.33316E+00 5.85354E+00
 -1       264 8.43650E+00 1.81897E+00 4.22759E+00
 -1       265 2.37496E+00 6.71126E+00 2.58383E+00
 -1       266 1.32240E+00 5.10740E+00 2.58383E+00
 -1       267 2.57951E+00 8.37137E+00 4.10189E+00
 -1       268 1.85658E+00 8.37137E+00 5.77031E+00
 -1       269 6.95291E+00 7.33316E+00 8.46115E+00
 -1       270 1.32240E+00 3.51461E+00 1.82646E+00
 -1       271 4.78081E+00 4.28989E+00 7.78652E+00
 -1       272 1.32240E+00 1.73603E+00 1.60000E+00
 -1       273 5.94622E+00 5.68751E+00 8.46115E+00
 -3
    3C                           118                                     1
 -1       133    6    0    1
 -2        52        16        13        35       199        99       200       201       102       101
 -1       134    6    0    1
 -2        30        52        13        46       202       200       166       176       203       167
 -1       135    6    0    1
 -2        45        38        21        29       204       117       175       164       205       163
 -1       136    6    0    1
 -2        22        25        51        47       170       206       207       173       172       208
 -1       137    6    0    1
 -2        54        52        51        41       209       210       212       213       211       214
 -1       138    6    0    1
 -2        52        54        53        44       209       215       217       218       216       219
 -1       139    6    0    1
 -2        52        54        51        53       209       212       210       217       215       220
 -1       140    6    0    1
 -2        39        54        51        41       221       212       222       142       213       214
 -1       141    6    0    1
 -2        39        27        19        37       141       127       128       224       223       114
 -1       142    6    0    1
 -2        39        37        20        51       224       113       129       222       225       226
 -1       143    6    0    1
 -2        23        42        36         7       146       227       121        76       145       109
 -1       144    6    0    1
 -2        37        51        54        53       225       212       228       229       220       215
 -1       145    6    0    1
 -2        27         5        19        18        82        70       127       188        69       112
 -1       146    6    0    1
 -2        22        25        20        51       170       130       115       207       206       226
 -1       147    6    0    1
 -2        38        53        37        36       230       229       126       124       231       125
 -1       148    6    0    1
 -2        39        41        51        40       142       214       222       144       143       232
 -1       149    6    0    1
 -2        42        38        53        43       233       230       235       161       234       236
 -1       150    6    0    1
 -2        45        22        38        51       174       118       204       237       207       238
 -1       151    6    0    1
 -2        31        42        48        44       159       239       183       156       160       240
 -1       152    6    0    1
 -2        32        44        31        48       155       156        89       182       240       183
 -1       153    6    0    1
 -2        38        36        42        53       124       227       233       230       231       235
 -1       154    6    0    1
 -2        16        13        30        52        99       166       151       199       200       202
 -1       155    6    0    1
 -2        14        40        47        52       241       242       178       244       243       245
 -1       156    6    0    1
 -2        38        22        37        51       118       123       126       238       207       225
 -1       157    6    0    1
 -2        49        33        54        10       246       247       248       186        94       249
 -1       158    6    0    1
 -2        33        32        15         8       250       152        92        91        90        64
 -1       159    6    0    1
 -2        52        45        53        51       251       252       217       210       237       220
 -1       160    6    0    1
 -2        53        42        54        36       235       253       215       231       227       254
 -1       161    6    0    1
 -2        34        12        41        11        97       135       255        96        59       136
 -1       162    6    0    1
 -2        44        16        35        15       154       102       256       153        65       103
 -1       163    6    0    1
 -2        50        54        10        49       257       249       194       198       248       186
 -1       164    6    0    1
 -2        49        48        54        44       197       258       248       259       240       216
 -1       165    6    0    1
 -2        33        32         8        49       250        90        91       246       193       184
 -1       166    6    0    1
 -2        54        48        49        50       258       197       248       257       196       198
 -1       167    6    0    1
 -2        41        10        54        34       260       249       213       255       104       261
 -1       168    6    0    1
 -2        39        20        25        51       129       130       139       222       226       206
 -1       169    6    0    1
 -2        33        32        49        44       250       193       246       262       155       259
 -1       170    6    0    1
 -2        41        10        34        11       260       104       255       136        95        96
 -1       171    6    0    1
 -2        43        52        30        45       263       202       149       264       251       165
 -1       172    6    0    1
 -2        53        38        37        51       230       126       229       220       238       225
 -1       173    6    0    1
 -2        50        18        37        36       191       122       265       266       111       125
 -1       174    6    0    1
 -2        45        38        53        51       204       230       252       237       238       220
 -1       175    6    0    1
 -2        50        39        41        54       267       142       268       257       221       213
 -1       176    6    0    1
 -2        14        40        52        12       241       243       244        98       140       269
 -1       177    6    0    1
 -2        41        10        11        28       260        95       136       137       187       134
 -1       178    6    0    1
 -2        24        21        29         3       116       163       148        78        73        85
 -1       179    6    0    1
 -2        11        28        10         6       134       187        95        58        84        57
 -1       180    6    0    1
 -2        16        30        13         4       151       166        99        66        87        61
 -1       181    6    0    1
 -2        45        52        30        46       251       202       165       177       203       176
 -1       182    6    0    1
 -2        54        42        53        44       253       235       215       216       160       219
 -1       183    6    0    1
 -2        36        48        54        50       270       258       254       266       196       257
 -1       184    6    0    1
 -2        52        43        53        45       263       236       217       251       264       252
 -1       185    6    0    1
 -2        16        44        35        52       154       256       102       199       218       201
 -1       186    6    0    1
 -2        38        45        43        29       204       264       234       205       164       150
 -1       187    6    0    1
 -2        54        42        48        36       253       239       258       254       227       270
 -1       188    6    0    1
 -2        45        22        21        38       174        74       175       204       118       117
 -1       189    6    0    1
 -2        43        45        30        29       264       165       149       150       164        86
 -1       190    6    0    1
 -2        24        29        21        38       148       163       116       119       205       117
 -1       191    6    0    1
 -2        43        38        53        45       234       230       236       264       204       252
 -1       192    6    0    1
 -2        33        35        54        34       106       271       247       108       107       261
 -1       193    6    0    1
 -2        54        35        33        44       271       106       247       216       256       262
 -1       194    6    0    1
 -2        42        38        43        24       233       234       161       147       119       157
 -1       195    6    0    1
 -2        44        16        43        52       154       158       162       218       199       263
 -1       196    6    0    1
 -2        51        40        47        25       232       242       208       206       131       172
 -1       197    6    0    1
 -2        52        12        40        41       269       140       243       211       135       143
 -1       198    6    0    1
 -2        48        42        54        44       239       253       258       240       160       216
 -1       199    6    0    1
 -2        52        47        45        51       245       180       251       210       208       237
 -1       200    6    0    1
 -2        50        37        18        27       265       122       191       189       223       188
 -1       201    6    0    1
 -2        15        33        35        44        92       106       103       153       262       256
 -1       202    6    0    1
 -2        43        38        29        24       234       205       150       157       119       148
 -1       203    6    0    1
 -2        14        52        13        35       244       200        62       100       201       101
 -1       204    6    0    1
 -2        52        45        47        46       251       180       245       203       177       179
 -1       205    6    0    1
 -2        38        42        36        23       233       227       124       120       146       121
 -1       206    6    0    1
 -2        22        45        47        51       174       180       173       207       237       208
 -1       207    6    0    1
 -2        44        43        53        52       162       236       219       218       263       217
 -1       208    6    0    1
 -2        22        20        25         1       115       130       170        75        72        79
 -1       209    6    0    1
 -2        41        52        51        40       211       210       214       143       243       232
 -1       210    6    0    1
 -2        52        14        13        46       244        62       200       203       168       167
 -1       211    6    0    1
 -2        28        50        27        41       190       189        83       137       268       138
 -1       212    6    0    1
 -2        43        16        30        52       158       151       149       263       199       202
 -1       213    6    0    1
 -2        47        52        40        51       245       243       242       208       210       232
 -1       214    6    0    1
 -2        44        49        48        32       259       197       240       155       193       182
 -1       215    6    0    1
 -2        49        33        10         9       246        94       186       185        93        56
 -1       216    6    0    1
 -2        42        31        36         7       159       272       227       145        88       109
 -1       217    6    0    1
 -2        23        38        42        24       120       233       146        77       119       147
 -1       218    6    0    1
 -2        50        41        10        54       268       260       194       257       213       249
 -1       219    6    0    1
 -2        25        26        40        47        80       132       131       172       171       242
 -1       220    6    0    1
 -2        48        17        18        36       192        68       195       270       110       111
 -1       221    6    0    1
 -2        51        40        25        39       232       131       206       222       144       139
 -1       222    6    0    1
 -2        54        35        52        34       271       201       209       261       107       273
 -1       223    6    0    1
 -2        48        42        31        36       239       159       183       270       227       272
 -1       224    6    0    1
 -2        39        37        19        20       224       114       128       129       113        71
 -1       225    6    0    1
 -2        52        35        54        44       201       271       209       218       256       216
 -1       226    6    0    1
 -2        31        17        36         7       181       110       272        88        67       109
 -1       227    6    0    1
 -2        37        51        39        54       225       222       224       228       212       221
 -1       228    6    0    1
 -2        37        27        19        18       223       127       114       122       188       112
 -1       229    6    0    1
 -2        50        37        27        39       265       223       189       267       224       141
 -1       230    6    0    1
 -2        50        37        54        36       265       228       257       266       125       254
 -1       231    6    0    1
 -2        37        22        20        51       123       115       113       225       207       226
 -1       232    6    0    1
 -2        54        37        50        39       228       265       257       221       224       267
 -1       233    6    0    1
 -2        54        37        53        36       228       229       215       254       125       231
 -1       234    6    0    1
 -2        33        49         8         9       246       184        91        93       185        55
 -1       235    6    0    1
 -2        50        48        18        36       196       195       191       266       270       111
 -1       236    6    0    1
 -2        14        40        12        26       241       140        98       169       132       133
 -1       237    6    0    1
 -2        49        33        44        54       246       262       259       248       247       216
 -1       238    6    0    1
 -2        26        12        14         2       133        98       169        81        60        63
 -1       239    6    0    1
 -2        12        34        52        14        97       273       269        98       105       244
 -1       240    6    0    1
 -2        50        39        27        41       267       141       189       268       142       138
 -1       241    6    0    1
 -2        17        48        31        36       192       183       181       110       270       272
 -1       242    6    0    1
 -2        50        10        41        28       194       260       268       190       187       137
 -1       243    6    0    1
 -2        34        54        33        10       261       247       108       104       249        94
 -1       244    6    0    1
 -2        12        34        41        52        97       255       135       269       273       211
 -1       245    6    0    1
 -2        44        43        42        53       162       161       160       219       236       235
 -1       246    6    0    1
 -2        14        40        26        47       241       132       169       178       242       171
 -1       247    6    0    1
 -2        34        54        41        52       261       213       255       273       209       211
 -1       248    6    0    1
 -2        52        34        35        14       273       107       201       244       105       100
 -1       249    6    0    1
 -2        52        14        46        47       244       168       203       245       178       179
 -1       250    6    0    1